
#(C) 2019 by FIZ Karlsruhe - Leibniz Institute for Information Infrastructure.  All rights reserved.
data_27281-ICSD
_database_code_ICSD 27281
_audit_creation_date 1980-01-01
_audit_update_record 1987-10-16
_chemical_name_systematic 'Holmium iron(III) oxide'
_chemical_formula_structural 'Ho Fe O3'
_chemical_formula_sum 'Fe1 Ho1 O3'
_chemical_name_structure_type Perovskite-GdFeO3
_exptl_crystal_density_diffrn 7.96
_publ_section_title 'The crystal chemistry of the rare earth orthoferrites'
loop_
_citation_id
_citation_journal_full
_citation_year
_citation_journal_volume
_citation_page_first
_citation_page_last
_citation_journal_id_ASTM
primary

;
Acta Crystallographica, Section B: Structural Crystallography and Crystal
Chemistry
; 1970 26 2008 2022 ACBCAR
loop_
_publ_author_name
'Marezio, M.'
'Remeika, J.P.'
'Dernier, P.D.'
_cell_length_a 5.278(3)
_cell_length_b 5.591(3)
_cell_length_c 7.602(3)
_cell_angle_alpha 90.
_cell_angle_beta 90.
_cell_angle_gamma 90.
_cell_volume 224.33
_cell_formula_units_Z 4
_symmetry_space_group_name_H-M 'P b n m'
_symmetry_Int_Tables_number 62
_refine_ls_R_factor_all 0.022
loop_
_symmetry_equiv_pos_site_id
_symmetry_equiv_pos_as_xyz
1 '-x+1/2, y+1/2, z'
2 'x, y, -z+1/2'
3 'x+1/2, -y+1/2, z+1/2'
4 '-x, -y, -z'
5 'x+1/2, -y+1/2, -z'
6 '-x, -y, z+1/2'
7 '-x+1/2, y+1/2, -z+1/2'
8 'x, y, z'
loop_
_atom_type_symbol
_atom_type_oxidation_number
Ho3+ 3
Fe3+ 3
O2- -2
loop_
_atom_site_label
_atom_site_type_symbol
_atom_site_symmetry_multiplicity
_atom_site_Wyckoff_symbol
_atom_site_fract_x
_atom_site_fract_y
_atom_site_fract_z
_atom_site_B_iso_or_equiv
_atom_site_occupancy
_atom_site_attached_hydrogens
Ho1 Ho3+ 4 c 0.98219(4) 0.06801(5) 0.25 . 1. 0
Fe1 Fe3+ 4 b 0 0.5 0 . 1. 0
O1 O2- 4 c 0.1091(9) 0.4605(8) 0.25 . 1. 0
O2 O2- 8 d 0.6924(5) 0.3052(6) 0.0560(5) . 1. 0
loop_
_atom_site_aniso_label
_atom_site_aniso_type_symbol
_atom_site_aniso_beta_11
_atom_site_aniso_beta_22
_atom_site_aniso_beta_33
_atom_site_aniso_beta_12
_atom_site_aniso_beta_13
_atom_site_aniso_beta_23
Ho1 Ho3+ 0.00468(6) 0.00333(6) 0.00215(3) -.00032(4) 0 0
Fe1 Fe3+ 0.0045(2) 0.0036(2) 0.0018(1) 0.0000(1) 0.0000(1) 0.0002(1)
O1 O2- 0.0072(10) 0.0039(10) 0.0025(5) -.0014(7) 0 0
O2 O2- 0.0051(5) 0.0050(7) 0.0030(4) -.0011(5) 0.0003(4) -.0005(4)
#End of TTdata_27281-ICSD