
#(C) 2019 by FIZ Karlsruhe - Leibniz Institute for Information Infrastructure.  All rights reserved.
data_35495-ICSD
_database_code_ICSD 35495
_audit_creation_date 1983-12-31
_audit_update_record 2015-08-01
_chemical_name_systematic 'Barium bis(nitrate(V))'
_chemical_formula_structural 'Ba (N O3)2'
_chemical_formula_sum 'Ba1 N2 O6'
_chemical_name_structure_type Sr(NO3)2
_chemical_name_mineral Nitrobarite
_exptl_crystal_density_diffrn 3.24
_publ_section_title

;
Structure Refinement of Strontium Nitrate, Sr (N O3)2, and Barium Nitrate, Ba
(N O3)2
;
loop_
_citation_id
_citation_journal_full
_citation_year
_citation_journal_volume
_citation_page_first
_citation_page_last
_citation_journal_id_ASTM
primary 'Acta Crystallographica, Section C: Crystal Structure Communications'
1983 39 952 956 ACSCEE
loop_
_publ_author_name
'Nowotny, H.N.'
'Heger, G.'
_cell_length_a 8.1184(2)
_cell_length_b 8.1184(2)
_cell_length_c 8.1184(2)
_cell_angle_alpha 90.
_cell_angle_beta 90.
_cell_angle_gamma 90.
_cell_volume 535.07
_cell_formula_units_Z 4
_symmetry_space_group_name_H-M 'P a -3'
_symmetry_Int_Tables_number 205
_refine_ls_R_factor_all 0.024
loop_
_symmetry_equiv_pos_site_id
_symmetry_equiv_pos_as_xyz
1 '-z+1/2, x+1/2, y'
2 'z+1/2, x, -y+1/2'
3 'z, -x+1/2, y+1/2'
4 '-z, -x, -y'
5 'y, -z+1/2, x+1/2'
6 '-y+1/2, z+1/2, x'
7 'y+1/2, z, -x+1/2'
8 '-y, -z, -x'
9 'x+1/2, y, -z+1/2'
10 'x, -y+1/2, z+1/2'
11 '-x+1/2, y+1/2, z'
12 '-x, -y, -z'
13 'z+1/2, -x+1/2, -y'
14 '-z+1/2, -x, y+1/2'
15 '-z, x+1/2, -y+1/2'
16 'z, x, y'
17 '-y, z+1/2, -x+1/2'
18 'y+1/2, -z+1/2, -x'
19 '-y+1/2, -z, x+1/2'
20 'y, z, x'
21 '-x+1/2, -y, z+1/2'
22 '-x, y+1/2, -z+1/2'
23 'x+1/2, -y+1/2, -z'
24 'x, y, z'
loop_
_atom_type_symbol
_atom_type_oxidation_number
Ba2+ 2
N5+ 5
O2- -2
loop_
_atom_site_label
_atom_site_type_symbol
_atom_site_symmetry_multiplicity
_atom_site_Wyckoff_symbol
_atom_site_fract_x
_atom_site_fract_y
_atom_site_fract_z
_atom_site_B_iso_or_equiv
_atom_site_occupancy
_atom_site_attached_hydrogens
Ba1 Ba2+ 4 a 0 0 0 . 1. 0
N1 N5+ 8 c 0.35139(4) 0.35139(4) 0.35139(4) . 1. 0
O1 O2- 24 d 0.28553(8) 0.29105(8) 0.47627(7) . 1. 0
loop_
_atom_site_aniso_label
_atom_site_aniso_type_symbol
_atom_site_aniso_beta_11
_atom_site_aniso_beta_22
_atom_site_aniso_beta_33
_atom_site_aniso_beta_12
_atom_site_aniso_beta_13
_atom_site_aniso_beta_23
Ba1 Ba2+ 0.00444(6) 0.00444(6) 0.00444(6) 0.00010(6) 0.00010(6) 0.00010(6)
N1 N5+ 0.00596(5) 0.00596(5) 0.00596(5) 0.00102(4) 0.00102(4) 0.00102(4)
O1 O2- 0.01020(9) 0.00914(9) 0.00762(8) 0.00350(7) 0.00370(7) 0.00310(6)
#End of TTdata_35495-ICSD